phonopy:
  version: "2.26.6"
  calculator: wien2k
  frequency_unit_conversion_factor: 15.633302
  symmetry_tolerance: 1.00000e-05
  configuration:
    cell_filename: "GaAs.struct"
    create_displacements: ".true."
    dim: "2 2 2"
    calculator: "wien2k"

physical_unit:
  atomic_mass: "AMU"
  length: "au"

space_group:
  type: "R3m"
  number: 160
  Hall_symbol: "R 3 -2\""

supercell_matrix:
- [   2,   0,   0 ]
- [   0,   2,   0 ]
- [   0,   0,   2 ]

primitive_cell:
  lattice:
  - [    10.866274000000001,     0.000000000000001,     0.000000000000001 ] # a
  - [     0.000000000000000,    10.866274000000001,     0.000000000000001 ] # b
  - [     0.000000000000000,     0.000000000000000,    10.866274000000001 ] # c
  points:
  - symbol: Ga # 1
    coordinates: [  0.000000000000000,  0.000000000000000,  0.000000000000000 ]
    mass: 69.723000
  - symbol: As # 2
    coordinates: [  0.250000000000000,  0.250000000000000,  0.250000000000000 ]
    mass: 74.921600
  reciprocal_lattice: # without 2pi
  - [     0.092027865301390,     0.000000000000000,     0.000000000000000 ] # a*
  - [    -0.000000000000000,     0.092027865301390,     0.000000000000000 ] # b*
  - [    -0.000000000000000,    -0.000000000000000,     0.092027865301390 ] # c*

unit_cell:
  lattice:
  - [    10.866274000000001,     0.000000000000001,     0.000000000000001 ] # a
  - [     0.000000000000000,    10.866274000000001,     0.000000000000001 ] # b
  - [     0.000000000000000,     0.000000000000000,    10.866274000000001 ] # c
  points:
  - symbol: Ga # 1
    coordinates: [  0.000000000000000,  0.000000000000000,  0.000000000000000 ]
    mass: 69.723000
    reduced_to: 1
  - symbol: As # 2
    coordinates: [  0.250000000000000,  0.250000000000000,  0.250000000000000 ]
    mass: 74.921600
    reduced_to: 2

supercell:
  lattice:
  - [    21.732548000000001,     0.000000000000001,     0.000000000000001 ] # a
  - [     0.000000000000000,    21.732548000000001,     0.000000000000001 ] # b
  - [     0.000000000000000,     0.000000000000000,    21.732548000000001 ] # c
  points:
  - symbol: Ga # 1
    coordinates: [  0.000000000000000,  0.000000000000000,  0.000000000000000 ]
    mass: 69.723000
    reduced_to: 1
  - symbol: Ga # 2
    coordinates: [  0.500000000000000,  0.000000000000000,  0.000000000000000 ]
    mass: 69.723000
    reduced_to: 1
  - symbol: Ga # 3
    coordinates: [  0.000000000000000,  0.500000000000000,  0.000000000000000 ]
    mass: 69.723000
    reduced_to: 1
  - symbol: Ga # 4
    coordinates: [  0.500000000000000,  0.500000000000000,  0.000000000000000 ]
    mass: 69.723000
    reduced_to: 1
  - symbol: Ga # 5
    coordinates: [  0.000000000000000,  0.000000000000000,  0.500000000000000 ]
    mass: 69.723000
    reduced_to: 1
  - symbol: Ga # 6
    coordinates: [  0.500000000000000,  0.000000000000000,  0.500000000000000 ]
    mass: 69.723000
    reduced_to: 1
  - symbol: Ga # 7
    coordinates: [  0.000000000000000,  0.500000000000000,  0.500000000000000 ]
    mass: 69.723000
    reduced_to: 1
  - symbol: Ga # 8
    coordinates: [  0.500000000000000,  0.500000000000000,  0.500000000000000 ]
    mass: 69.723000
    reduced_to: 1
  - symbol: As # 9
    coordinates: [  0.125000000000000,  0.125000000000000,  0.125000000000000 ]
    mass: 74.921600
    reduced_to: 9
  - symbol: As # 10
    coordinates: [  0.625000000000000,  0.125000000000000,  0.125000000000000 ]
    mass: 74.921600
    reduced_to: 9
  - symbol: As # 11
    coordinates: [  0.125000000000000,  0.625000000000000,  0.125000000000000 ]
    mass: 74.921600
    reduced_to: 9
  - symbol: As # 12
    coordinates: [  0.625000000000000,  0.625000000000000,  0.125000000000000 ]
    mass: 74.921600
    reduced_to: 9
  - symbol: As # 13
    coordinates: [  0.125000000000000,  0.125000000000000,  0.625000000000000 ]
    mass: 74.921600
    reduced_to: 9
  - symbol: As # 14
    coordinates: [  0.625000000000000,  0.125000000000000,  0.625000000000000 ]
    mass: 74.921600
    reduced_to: 9
  - symbol: As # 15
    coordinates: [  0.125000000000000,  0.625000000000000,  0.625000000000000 ]
    mass: 74.921600
    reduced_to: 9
  - symbol: As # 16
    coordinates: [  0.625000000000000,  0.625000000000000,  0.625000000000000 ]
    mass: 74.921600
    reduced_to: 9

displacements:
- atom:    1
  displacement:
    [   0.0200000000000000,  0.0000000000000000,  0.0000000000000000 ]
- atom:    1
  displacement:
    [  -0.0200000000000000, -0.0000000000000000, -0.0000000000000000 ]
- atom:    9
  displacement:
    [   0.0200000000000000,  0.0000000000000000,  0.0000000000000000 ]
- atom:    9
  displacement:
    [  -0.0200000000000000, -0.0000000000000000, -0.0000000000000000 ]
